LAMMPS (24 Mar 2022)
OMP_NUM_THREADS environment is not set. Defaulting to 1 thread. (src/comm.cpp:98)
  using 1 OpenMP thread(s) per MPI task
units		electron
atom_style	full

#pair_style	lj/cut/coul/long 17.01
pair_style      lj/cut/tip4p/long 1 2 1 1 0.278072379 17.007
#bond_style      harmonic
bond_style      class2
angle_style     harmonic
#kspace_style	pppm 0.0001
kspace_style	pppm/tip4p 0.0001

read_data	data.lmp
Reading data file ...
  orthogonal box = (0 0 0) to (32.414 32.414 32.414)
  1 by 1 by 1 MPI processor grid
  reading atoms ...
  192 atoms
  scanning bonds ...
  2 = max bonds/atom
  scanning angles ...
  1 = max angles/atom
  reading bonds ...
  128 bonds
  reading angles ...
  64 angles
Finding 1-2 1-3 1-4 neighbors ...
  special bond factors lj:    0        0        0       
  special bond factors coul:  0        0        0       
     2 = max # of 1-2 neighbors
     1 = max # of 1-3 neighbors
     1 = max # of 1-4 neighbors
     2 = max # of special neighbors
  special bonds CPU = 0.000 seconds
  read_data CPU = 0.066 seconds
pair_coeff  * * 0 0
pair_coeff  1  1  0.000295147 5.96946

neighbor	2.0 bin

timestep	0.00025

#velocity all create 298.0 2345187

#thermo_style	multi
#thermo		1

#fix		1 all nvt temp 298.0 298.0 30.0 tchain 1
#fix 1 all nve
fix 1 all ipi water 32345 unix

#dump		1 all xyz 25 dump.xyz

run		100000000
WARNING: No fixes with time integration, atoms won't move (src/verlet.cpp:60)
PPPM initialization ...
  extracting TIP4P info from pair style
  using 12-bit tables for long-range coulomb (src/kspace.cpp:340)
  G vector (1/distance) = 0.16061744
  grid = 12 12 12
  stencil order = 5
  estimated absolute RMS force accuracy = 1.4912052e-05
  estimated relative force accuracy = 5.3251903e-05
  using double precision FFTW3
  3d grid and FFT values/proc = 4913 1728
  generated 0 of 1 mixed pair_coeff terms from geometric mixing rule
Neighbor list info ...
  update every 1 steps, delay 0 steps, check yes
  max neighbors/atom: 2000, page size: 100000
  master list distance cutoff = 19.563145
  ghost atom cutoff = 19.563145
  binsize = 9.7815724, bins = 4 4 4
  1 neighbor lists, perpetual/occasional/extra = 1 0 0
  (1) pair lj/cut/tip4p/long, perpetual
      attributes: half, newton on
      pair build: half/bin/newton
      stencil: half/bin/3d
      bin: standard
Per MPI rank memory allocation (min/avg/max) = 7.653 | 7.653 | 7.653 Mbytes
   Step          Temp          E_pair         E_mol          TotEng         Press     
         0   0              47.292203      50.66465       97.956853      2.1738332e+11
ERROR on proc 0: Got EXIT message from i-PI. Now leaving! (src/MISC/fix_ipi.cpp:288)
Last command: run		100000000
